<?xml version="1.0" encoding="UTF-8"?>

<!-- generated on 11/9/2017 2:03:54 PM by SUMO gui Version 0.31.0
<?xml version="1.0" encoding="UTF-8"?>

<configuration xmlns:xsi="http://www.w3.org/2001/XMLSchema-instance" xsi:noNamespaceSchemaLocation="http://sumo.dlr.de/xsd/sumoConfiguration.xsd">

    <input>
        <net-file value="C:\Users\Biko\Documents\GitHub\PhD_Modeling\Calibrator_Test\cali-TEST-Run_Files\Calibrator_Test-Track_V0.net.xml"/>
        <additional-files value="C:\Users\Biko\Documents\GitHub\PhD_Modeling\Calibrator_Test\cali-TEST-Run_Files\cali-TEST.vType.add.xml,C:\Users\Biko\Documents\GitHub\PhD_Modeling\Calibrator_Test\cali-TEST-Run_Files\Calibrator_Test-calibrator.add.xml"/>
    </input>

    <output>
        <output-prefix value="Cali_TEST-V0.0.2-NO-ROUTES-"/>
        <summary-output value="C:\Users\Biko\Documents\GitHub\PhD_Modeling\Calibrator_Test\cali-TEST-Run_Files\.\Summary_output.xml"/>
        <tripinfo-output value="C:\Sumo\runs\caliTEST-C\caliTEST-OUTPUT-C\TRIP_output.xml"/>
        <vehroute-output value="C:\Sumo\runs\caliTEST-C\caliTEST-OUTPUT-C\Veh_Route_output.xml"/>
        <vehroute-output.exit-times value="true"/>
        <vehroute-output.sorted value="true"/>
        <vehroute-output.intended-depart value="true"/>
        <vehroute-output.route-length value="true"/>
        <vehroute-output.write-unfinished value="true"/>
        <save-state.times value="240,3600"/>
        <save-state.files value="C:\Sumo\runs\caliTEST-C\caliTEST-OUTPUT-C\240-caliTEST-State-file.xml,C:\Sumo\runs\caliTEST-C\caliTEST-OUTPUT-C\\3600-caliTEST-State-file.xml"/>
    </output>

    <time>
        <begin value="0"/>
        <end value="50400"/>
        <step-length value="1"/>
    </time>

    <processing>
        <step-method.ballistic value="true"/>
        <ignore-route-errors value="true"/>
        <collision.action value="teleport"/>
        <collision.stoptime value="20"/>
        <collision.check-junctions value="false"/>
        <waiting-time-memory value="10"/>
        <max-depart-delay value="40"/>
        <time-to-impatience value="120"/>
    </processing>

    <routing>
        <device.rerouting.probability value="0.75"/>
        <device.rerouting.adaptation-weight value="0.5"/>
    </routing>

    <report>
        <verbose value="true"/>
        <no-warnings value="false"/>
        <duration-log.statistics value="true"/>
        <no-step-log value="false"/>
    </report>

    <gui_only>
        <gui-settings-file value="C:\Users\Biko\Dropbox\PhD\Research\Models\SUMO\SUMO_DropBox\Belmont_Ave-Run\Belmont-AOI-Run_Files\OSM_Clipped_View_settings-Real_world-currentoccupancy.xml"/>
        <start value="true"/>
        <tracker-interval value="1"/>
    </gui_only>

</configuration>
-->

<routes xmlns:xsi="http://www.w3.org/2001/XMLSchema-instance" xsi:noNamespaceSchemaLocation="http://sumo.dlr.de/xsd/routes_file.xsd">
    <routeDistribution id="0_0-0_1-Calibrator-RouteProbe_3120.00">
        <route id="0_0-0_1-Calibrator-Distrib#0_3120.00" edges="0_0-0_1 0_1-1_1 1_1-2_1 2_1-3_1 3_1-3_2 FINISH" probability="1.00"/>
    </routeDistribution>
    <routeDistribution id="START-Calibrator-RouteProbe_3120.00">
        <route id="START-Calibrator-Distrib#0_3120.00" edges="START 0_0-1_0 1_0-2_0 2_0-3_0 3_0-3_1 3_1-3_2 FINISH" probability="1.00"/>
    </routeDistribution>
    <routeDistribution id="0_0-0_1-Calibrator-RouteProbe_3140.00">
        <route id="0_0-0_1-Calibrator-Distrib#0_3140.00" edges="0_0-0_1 0_1-1_1 1_1-2_1 2_1-3_1 3_1-3_2 FINISH" probability="2.00"/>
    </routeDistribution>
    <routeDistribution id="START-Calibrator-RouteProbe_3140.00">
        <route id="START-Calibrator-Distrib#0_3140.00" edges="START 0_0-1_0 1_0-2_0 2_0-3_0 3_0-3_1 3_1-3_2 FINISH" probability="2.00"/>
    </routeDistribution>
    <routeDistribution id="0_0-0_1-Calibrator-RouteProbe_3160.00">
        <route id="0_0-0_1-Calibrator-Distrib#0_3160.00" edges="0_0-0_1 0_1-1_1 1_1-2_1 2_1-3_1 3_1-3_2 FINISH" probability="3.00"/>
    </routeDistribution>
    <routeDistribution id="START-Calibrator-RouteProbe_3160.00">
        <route id="START-Calibrator-Distrib#0_3160.00" edges="START 0_0-1_0 1_0-2_0 2_0-3_0 3_0-3_1 3_1-3_2 FINISH" probability="5.00"/>
    </routeDistribution>
    <routeDistribution id="0_0-0_1-Calibrator-RouteProbe_3180.00">
        <route id="0_0-0_1-Calibrator-Distrib#0_3180.00" edges="0_0-0_1 0_1-1_1 1_1-2_1 2_1-3_1 3_1-3_2 FINISH" probability="2.00"/>
    </routeDistribution>
    <routeDistribution id="START-Calibrator-RouteProbe_3180.00">
        <route id="START-Calibrator-Distrib#0_3180.00" edges="START 0_0-1_0 1_0-2_0 2_0-3_0 3_0-3_1 3_1-3_2 FINISH" probability="6.00"/>
    </routeDistribution>
    <routeDistribution id="0_0-0_1-Calibrator-RouteProbe_3200.00">
        <route id="0_0-0_1-Calibrator-Distrib#0_3200.00" edges="0_0-0_1 0_1-1_1 1_1-2_1 2_1-3_1 3_1-3_2 FINISH" probability="1.00"/>
    </routeDistribution>
    <routeDistribution id="START-Calibrator-RouteProbe_3200.00">
        <route id="START-Calibrator-Distrib#0_3200.00" edges="START 0_0-1_0 1_0-2_0 2_0-3_0 3_0-3_1 3_1-3_2 FINISH" probability="1.00"/>
    </routeDistribution>
    <routeDistribution id="0_0-0_1-Calibrator-RouteProbe_3220.00">
        <route id="0_0-0_1-Calibrator-Distrib#0_3220.00" edges="0_0-0_1 0_1-1_1 1_1-2_1 2_1-3_1 3_1-3_2 FINISH" probability="2.00"/>
    </routeDistribution>
    <routeDistribution id="START-Calibrator-RouteProbe_3220.00">
        <route id="START-Calibrator-Distrib#0_3220.00" edges="START 0_0-1_0 1_0-2_0 2_0-3_0 3_0-3_1 3_1-3_2 FINISH" probability="7.00"/>
    </routeDistribution>
    <routeDistribution id="0_0-0_1-Calibrator-RouteProbe_3240.00">
        <route id="0_0-0_1-Calibrator-Distrib#0_3240.00" edges="0_0-0_1 0_1-1_1 1_1-2_1 2_1-3_1 3_1-3_2 FINISH" probability="1.00"/>
    </routeDistribution>
    <routeDistribution id="0_0-0_1-Calibrator-RouteProbe_3260.00">
        <route id="0_0-0_1-Calibrator-Distrib#0_3260.00" edges="0_0-0_1 0_1-1_1 1_1-2_1 2_1-3_1 3_1-3_2 FINISH" probability="2.00"/>
    </routeDistribution>
    <routeDistribution id="START-Calibrator-RouteProbe_3260.00">
        <route id="START-Calibrator-Distrib#0_3260.00" edges="START 0_0-1_0 1_0-2_0 2_0-3_0 3_0-3_1 3_1-3_2 FINISH" probability="4.00"/>
    </routeDistribution>
    <routeDistribution id="0_0-0_1-Calibrator-RouteProbe_3280.00">
        <route id="0_0-0_1-Calibrator-Distrib#0_3280.00" edges="0_0-0_1 0_1-1_1 1_1-2_1 2_1-3_1 3_1-3_2 FINISH" probability="2.00"/>
    </routeDistribution>
    <routeDistribution id="START-Calibrator-RouteProbe_3280.00">
        <route id="START-Calibrator-Distrib#0_3280.00" edges="START 0_0-1_0 1_0-2_0 2_0-3_0 3_0-3_1 3_1-3_2 FINISH" probability="6.00"/>
    </routeDistribution>
    <routeDistribution id="0_0-0_1-Calibrator-RouteProbe_3300.00">
        <route id="0_0-0_1-Calibrator-Distrib#0_3300.00" edges="0_0-0_1 0_1-1_1 1_1-2_1 2_1-3_1 3_1-3_2 FINISH" probability="3.00"/>
    </routeDistribution>
    <routeDistribution id="START-Calibrator-RouteProbe_3300.00">
        <route id="START-Calibrator-Distrib#0_3300.00" edges="START 0_0-1_0 1_0-2_0 2_0-3_0 3_0-3_1 3_1-3_2 FINISH" probability="1.00"/>
    </routeDistribution>
    <routeDistribution id="0_0-0_1-Calibrator-RouteProbe_3320.00">
        <route id="0_0-0_1-Calibrator-Distrib#0_3320.00" edges="0_0-0_1 0_1-1_1 1_1-2_1 2_1-3_1 3_1-3_2 FINISH" probability="3.00"/>
    </routeDistribution>
    <routeDistribution id="START-Calibrator-RouteProbe_3320.00">
        <route id="START-Calibrator-Distrib#0_3320.00" edges="START 0_0-1_0 1_0-2_0 2_0-3_0 3_0-3_1 3_1-3_2 FINISH" probability="6.00"/>
    </routeDistribution>
    <routeDistribution id="0_0-0_1-Calibrator-RouteProbe_3340.00">
        <route id="0_0-0_1-Calibrator-Distrib#0_3340.00" edges="0_0-0_1 0_1-1_1 1_1-2_1 2_1-3_1 3_1-3_2 FINISH" probability="2.00"/>
    </routeDistribution>
    <routeDistribution id="0_0-0_1-Calibrator-RouteProbe_3360.00">
        <route id="0_0-0_1-Calibrator-Distrib#0_3360.00" edges="0_0-0_1 0_1-1_1 1_1-2_1 2_1-3_1 3_1-3_2 FINISH" probability="1.00"/>
    </routeDistribution>
    <routeDistribution id="START-Calibrator-RouteProbe_3360.00">
        <route id="START-Calibrator-Distrib#0_3360.00" edges="START 0_0-1_0 1_0-2_0 2_0-3_0 3_0-3_1 3_1-3_2 FINISH" probability="3.00"/>
    </routeDistribution>
    <routeDistribution id="0_0-0_1-Calibrator-RouteProbe_3380.00">
        <route id="0_0-0_1-Calibrator-Distrib#0_3380.00" edges="0_0-0_1 0_1-1_1 1_1-2_1 2_1-3_1 3_1-3_2 FINISH" probability="2.00"/>
    </routeDistribution>
    <routeDistribution id="START-Calibrator-RouteProbe_3380.00">
        <route id="START-Calibrator-Distrib#0_3380.00" edges="START 0_0-1_0 1_0-2_0 2_0-3_0 3_0-3_1 3_1-3_2 FINISH" probability="9.00"/>
    </routeDistribution>
    <routeDistribution id="0_0-0_1-Calibrator-RouteProbe_3400.00">
        <route id="0_0-0_1-Calibrator-Distrib#0_3400.00" edges="0_0-0_1 0_1-1_1 1_1-2_1 2_1-3_1 3_1-3_2 FINISH" probability="2.00"/>
    </routeDistribution>
    <routeDistribution id="0_0-0_1-Calibrator-RouteProbe_3420.00">
        <route id="0_0-0_1-Calibrator-Distrib#0_3420.00" edges="0_0-0_1 0_1-1_1 1_1-2_1 2_1-3_1 3_1-3_2 FINISH" probability="2.00"/>
    </routeDistribution>
    <routeDistribution id="START-Calibrator-RouteProbe_3420.00">
        <route id="START-Calibrator-Distrib#0_3420.00" edges="START 0_0-1_0 1_0-2_0 2_0-3_0 3_0-3_1 3_1-3_2 FINISH" probability="6.00"/>
    </routeDistribution>
    <routeDistribution id="0_0-0_1-Calibrator-RouteProbe_3440.00">
        <route id="0_0-0_1-Calibrator-Distrib#0_3440.00" edges="0_0-0_1 0_1-1_1 1_1-2_1 2_1-3_1 3_1-3_2 FINISH" probability="1.00"/>
    </routeDistribution>
    <routeDistribution id="0_0-0_1-Calibrator-RouteProbe_3460.00">
        <route id="0_0-0_1-Calibrator-Distrib#0_3460.00" edges="0_0-0_1 0_1-1_1 1_1-2_1 2_1-3_1 3_1-3_2 FINISH" probability="2.00"/>
    </routeDistribution>
    <routeDistribution id="START-Calibrator-RouteProbe_3460.00">
        <route id="START-Calibrator-Distrib#0_3460.00" edges="START 0_0-1_0 1_0-2_0 2_0-3_0 3_0-3_1 3_1-3_2 FINISH" probability="5.00"/>
    </routeDistribution>
    <routeDistribution id="0_0-0_1-Calibrator-RouteProbe_3480.00">
        <route id="0_0-0_1-Calibrator-Distrib#0_3480.00" edges="0_0-0_1 0_1-1_1 1_1-2_1 2_1-3_1 3_1-3_2 FINISH" probability="2.00"/>
    </routeDistribution>
    <routeDistribution id="START-Calibrator-RouteProbe_3480.00">
        <route id="START-Calibrator-Distrib#0_3480.00" edges="START 0_0-1_0 1_0-2_0 2_0-3_0 3_0-3_1 3_1-3_2 FINISH" probability="5.00"/>
    </routeDistribution>
    <routeDistribution id="0_0-0_1-Calibrator-RouteProbe_3500.00">
        <route id="0_0-0_1-Calibrator-Distrib#0_3500.00" edges="0_0-0_1 0_1-1_1 1_1-2_1 2_1-3_1 3_1-3_2 FINISH" probability="3.00"/>
    </routeDistribution>
    <routeDistribution id="0_0-0_1-Calibrator-RouteProbe_3520.00">
        <route id="0_0-0_1-Calibrator-Distrib#0_3520.00" edges="0_0-0_1 0_1-1_1 1_1-2_1 2_1-3_1 3_1-3_2 FINISH" probability="2.00"/>
    </routeDistribution>
    <routeDistribution id="START-Calibrator-RouteProbe_3520.00">
        <route id="START-Calibrator-Distrib#0_3520.00" edges="START 0_0-1_0 1_0-2_0 2_0-3_0 3_0-3_1 3_1-3_2 FINISH" probability="10.00"/>
    </routeDistribution>
    <routeDistribution id="0_0-0_1-Calibrator-RouteProbe_3540.00">
        <route id="0_0-0_1-Calibrator-Distrib#0_3540.00" edges="0_0-0_1 0_1-1_1 1_1-2_1 2_1-3_1 3_1-3_2 FINISH" probability="1.00"/>
    </routeDistribution>
    <routeDistribution id="0_0-0_1-Calibrator-RouteProbe_3560.00">
        <route id="0_0-0_1-Calibrator-Distrib#0_3560.00" edges="0_0-0_1 0_1-1_1 1_1-2_1 2_1-3_1 3_1-3_2 FINISH" probability="1.00"/>
    </routeDistribution>
    <routeDistribution id="START-Calibrator-RouteProbe_3560.00">
        <route id="START-Calibrator-Distrib#0_3560.00" edges="START 0_0-1_0 1_0-2_0 2_0-3_0 3_0-3_1 3_1-3_2 FINISH" probability="4.00"/>
    </routeDistribution>
    <routeDistribution id="0_0-0_1-Calibrator-RouteProbe_3580.00">
        <route id="0_0-0_1-Calibrator-Distrib#0_3580.00" edges="0_0-0_1 0_1-1_1 1_1-2_1 2_1-3_1 3_1-3_2 FINISH" probability="3.00"/>
    </routeDistribution>
    <routeDistribution id="START-Calibrator-RouteProbe_3580.00">
        <route id="START-Calibrator-Distrib#0_3580.00" edges="START 0_0-1_0 1_0-2_0 2_0-3_0 3_0-3_1 3_1-3_2 FINISH" probability="4.00"/>
    </routeDistribution>
    <routeDistribution id="0_0-0_1-Calibrator-RouteProbe_6880.00">
        <route id="0_0-0_1-Calibrator-Distrib#0_6880.00" edges="0_0-0_1 0_1-1_1 1_1-2_1 2_1-3_1 3_1-3_2 FINISH" probability="1.00"/>
    </routeDistribution>
    <routeDistribution id="START-Calibrator-RouteProbe_6880.00">
        <route id="START-Calibrator-Distrib#0_6880.00" edges="START 0_0-1_0 1_0-2_0 2_0-3_0 3_0-3_1 3_1-3_2 FINISH" probability="4.00"/>
    </routeDistribution>
    <routeDistribution id="0_0-0_1-Calibrator-RouteProbe_6900.00">
        <route id="0_0-0_1-Calibrator-Distrib#0_6900.00" edges="0_0-0_1 0_1-1_1 1_1-2_1 2_1-3_1 3_1-3_2 FINISH" probability="2.00"/>
    </routeDistribution>
    <routeDistribution id="START-Calibrator-RouteProbe_6900.00">
        <route id="START-Calibrator-Distrib#0_6900.00" edges="START 0_0-1_0 1_0-2_0 2_0-3_0 3_0-3_1 3_1-3_2 FINISH" probability="3.00"/>
    </routeDistribution>
    <routeDistribution id="0_0-0_1-Calibrator-RouteProbe_6920.00">
        <route id="0_0-0_1-Calibrator-Distrib#0_6920.00" edges="0_0-0_1 0_1-1_1 1_1-2_1 2_1-3_1 3_1-3_2 FINISH" probability="2.00"/>
    </routeDistribution>
    <routeDistribution id="START-Calibrator-RouteProbe_6920.00">
        <route id="START-Calibrator-Distrib#0_6920.00" edges="START 0_0-1_0 1_0-2_0 2_0-3_0 3_0-3_1 3_1-3_2 FINISH" probability="4.00"/>
    </routeDistribution>
    <routeDistribution id="0_0-0_1-Calibrator-RouteProbe_6940.00">
        <route id="0_0-0_1-Calibrator-Distrib#0_6940.00" edges="0_0-0_1 0_1-1_1 1_1-2_1 2_1-3_1 3_1-3_2 FINISH" probability="1.00"/>
    </routeDistribution>
    <routeDistribution id="0_0-0_1-Calibrator-RouteProbe_6960.00">
        <route id="0_0-0_1-Calibrator-Distrib#0_6960.00" edges="0_0-0_1 0_1-1_1 1_1-2_1 2_1-3_1 3_1-3_2 FINISH" probability="2.00"/>
    </routeDistribution>
    <routeDistribution id="START-Calibrator-RouteProbe_6960.00">
        <route id="START-Calibrator-Distrib#0_6960.00" edges="START 0_0-1_0 1_0-2_0 2_0-3_0 3_0-3_1 3_1-3_2 FINISH" probability="6.00"/>
    </routeDistribution>
    <routeDistribution id="0_0-0_1-Calibrator-RouteProbe_6980.00">
        <route id="0_0-0_1-Calibrator-Distrib#0_6980.00" edges="0_0-0_1 0_1-1_1 1_1-2_1 2_1-3_1 3_1-3_2 FINISH" probability="8.00"/>
    </routeDistribution>
    <routeDistribution id="START-Calibrator-RouteProbe_6980.00">
        <route id="START-Calibrator-Distrib#0_6980.00" edges="START 0_0-1_0 1_0-2_0 2_0-3_0 3_0-3_1 3_1-3_2 FINISH" probability="5.00"/>
    </routeDistribution>
    <routeDistribution id="START-Calibrator-RouteProbe_7000.00">
        <route id="START-Calibrator-Distrib#0_7000.00" edges="START 0_0-1_0 1_0-2_0 2_0-3_0 3_0-3_1 3_1-3_2 FINISH" probability="3.00"/>
    </routeDistribution>
    <routeDistribution id="0_0-0_1-Calibrator-RouteProbe_7020.00">
        <route id="0_0-0_1-Calibrator-Distrib#0_7020.00" edges="0_0-0_1 0_1-1_1 1_1-2_1 2_1-3_1 3_1-3_2 FINISH" probability="2.00"/>
    </routeDistribution>
    <routeDistribution id="0_0-0_1-Calibrator-RouteProbe_7040.00">
        <route id="0_0-0_1-Calibrator-Distrib#0_7040.00" edges="0_0-0_1 0_1-1_1 1_1-2_1 2_1-3_1 3_1-3_2 FINISH" probability="2.00"/>
    </routeDistribution>
    <routeDistribution id="START-Calibrator-RouteProbe_7040.00">
        <route id="START-Calibrator-Distrib#0_7040.00" edges="START 0_0-1_0 1_0-2_0 2_0-3_0 3_0-3_1 3_1-3_2 FINISH" probability="7.00"/>
    </routeDistribution>
    <routeDistribution id="0_0-0_1-Calibrator-RouteProbe_7060.00">
        <route id="0_0-0_1-Calibrator-Distrib#0_7060.00" edges="0_0-0_1 0_1-1_1 1_1-2_1 2_1-3_1 3_1-3_2 FINISH" probability="2.00"/>
    </routeDistribution>
    <routeDistribution id="START-Calibrator-RouteProbe_7060.00">
        <route id="START-Calibrator-Distrib#0_7060.00" edges="START 0_0-1_0 1_0-2_0 2_0-3_0 3_0-3_1 3_1-3_2 FINISH" probability="4.00"/>
    </routeDistribution>
    <routeDistribution id="0_0-0_1-Calibrator-RouteProbe_7080.00">
        <route id="0_0-0_1-Calibrator-Distrib#0_7080.00" edges="0_0-0_1 0_1-1_1 1_1-2_1 2_1-3_1 3_1-3_2 FINISH" probability="1.00"/>
    </routeDistribution>
    <routeDistribution id="START-Calibrator-RouteProbe_7080.00">
        <route id="START-Calibrator-Distrib#0_7080.00" edges="START 0_0-1_0 1_0-2_0 2_0-3_0 3_0-3_1 3_1-3_2 FINISH" probability="2.00"/>
    </routeDistribution>
    <routeDistribution id="0_0-0_1-Calibrator-RouteProbe_7100.00">
        <route id="0_0-0_1-Calibrator-Distrib#0_7100.00" edges="0_0-0_1 0_1-1_1 1_1-2_1 2_1-3_1 3_1-3_2 FINISH" probability="2.00"/>
    </routeDistribution>
    <routeDistribution id="START-Calibrator-RouteProbe_7100.00">
        <route id="START-Calibrator-Distrib#0_7100.00" edges="START 0_0-1_0 1_0-2_0 2_0-3_0 3_0-3_1 3_1-3_2 FINISH" probability="5.00"/>
    </routeDistribution>
    <routeDistribution id="0_0-0_1-Calibrator-RouteProbe_7120.00">
        <route id="0_0-0_1-Calibrator-Distrib#0_7120.00" edges="0_0-0_1 0_1-1_1 1_1-2_1 2_1-3_1 3_1-3_2 FINISH" probability="2.00"/>
    </routeDistribution>
    <routeDistribution id="0_0-0_1-Calibrator-RouteProbe_7140.00">
        <route id="0_0-0_1-Calibrator-Distrib#0_7140.00" edges="0_0-0_1 0_1-1_1 1_1-2_1 2_1-3_1 3_1-3_2 FINISH" probability="1.00"/>
    </routeDistribution>
    <routeDistribution id="START-Calibrator-RouteProbe_7140.00">
        <route id="START-Calibrator-Distrib#0_7140.00" edges="START 0_0-1_0 1_0-2_0 2_0-3_0 3_0-3_1 3_1-3_2 FINISH" probability="2.00"/>
    </routeDistribution>
    <routeDistribution id="0_0-0_1-Calibrator-RouteProbe_7160.00">
        <route id="0_0-0_1-Calibrator-Distrib#0_7160.00" edges="0_0-0_1 0_1-1_1 1_1-2_1 2_1-3_1 3_1-3_2 FINISH" probability="3.00"/>
    </routeDistribution>
    <routeDistribution id="START-Calibrator-RouteProbe_7160.00">
        <route id="START-Calibrator-Distrib#0_7160.00" edges="START 0_0-1_0 1_0-2_0 2_0-3_0 3_0-3_1 3_1-3_2 FINISH" probability="6.00"/>
    </routeDistribution>
    <routeDistribution id="0_0-0_1-Calibrator-RouteProbe_7180.00">
        <route id="0_0-0_1-Calibrator-Distrib#0_7180.00" edges="0_0-0_1 0_1-1_1 1_1-2_1 2_1-3_1 3_1-3_2 FINISH" probability="2.00"/>
    </routeDistribution>
    <routeDistribution id="START-Calibrator-RouteProbe_7180.00">
        <route id="START-Calibrator-Distrib#0_7180.00" edges="START 0_0-1_0 1_0-2_0 2_0-3_0 3_0-3_1 3_1-3_2 FINISH" probability="7.00"/>
    </routeDistribution>
    <routeDistribution id="0_0-0_1-Calibrator-RouteProbe_10580.00">
        <route id="0_0-0_1-Calibrator-Distrib#0_10580.00" edges="0_0-0_1 0_1-1_1 1_1-2_1 2_1-3_1 3_1-3_2 FINISH" probability="2.00"/>
    </routeDistribution>
    <routeDistribution id="START-Calibrator-RouteProbe_10580.00">
        <route id="START-Calibrator-Distrib#0_10580.00" edges="START 0_0-1_0 1_0-2_0 2_0-3_0 3_0-3_1 3_1-3_2 FINISH" probability="5.00"/>
    </routeDistribution>
    <routeDistribution id="0_0-0_1-Calibrator-RouteProbe_10600.00">
        <route id="0_0-0_1-Calibrator-Distrib#0_10600.00" edges="0_0-0_1 0_1-1_1 1_1-2_1 2_1-3_1 3_1-3_2 FINISH" probability="1.00"/>
    </routeDistribution>
    <routeDistribution id="START-Calibrator-RouteProbe_10600.00">
        <route id="START-Calibrator-Distrib#0_10600.00" edges="START 0_0-1_0 1_0-2_0 2_0-3_0 3_0-3_1 3_1-3_2 FINISH" probability="4.00"/>
    </routeDistribution>
    <routeDistribution id="0_0-0_1-Calibrator-RouteProbe_10620.00">
        <route id="0_0-0_1-Calibrator-Distrib#0_10620.00" edges="0_0-0_1 0_1-1_1 1_1-2_1 2_1-3_1 3_1-3_2 FINISH" probability="2.00"/>
    </routeDistribution>
    <routeDistribution id="0_0-0_1-Calibrator-RouteProbe_10640.00">
        <route id="0_0-0_1-Calibrator-Distrib#0_10640.00" edges="0_0-0_1 0_1-1_1 1_1-2_1 2_1-3_1 3_1-3_2 FINISH" probability="2.00"/>
    </routeDistribution>
    <routeDistribution id="START-Calibrator-RouteProbe_10640.00">
        <route id="START-Calibrator-Distrib#0_10640.00" edges="START 0_0-1_0 1_0-2_0 2_0-3_0 3_0-3_1 3_1-3_2 FINISH" probability="5.00"/>
    </routeDistribution>
    <routeDistribution id="0_0-0_1-Calibrator-RouteProbe_10660.00">
        <route id="0_0-0_1-Calibrator-Distrib#0_10660.00" edges="0_0-0_1 0_1-1_1 1_1-2_1 2_1-3_1 3_1-3_2 FINISH" probability="2.00"/>
    </routeDistribution>
    <routeDistribution id="START-Calibrator-RouteProbe_10660.00">
        <route id="START-Calibrator-Distrib#0_10660.00" edges="START 0_0-1_0 1_0-2_0 2_0-3_0 3_0-3_1 3_1-3_2 FINISH" probability="6.00"/>
    </routeDistribution>
    <routeDistribution id="0_0-0_1-Calibrator-RouteProbe_10680.00">
        <route id="0_0-0_1-Calibrator-Distrib#0_10680.00" edges="0_0-0_1 0_1-1_1 1_1-2_1 2_1-3_1 3_1-3_2 FINISH" probability="2.00"/>
    </routeDistribution>
    <routeDistribution id="START-Calibrator-RouteProbe_10680.00">
        <route id="START-Calibrator-Distrib#0_10680.00" edges="START 0_0-1_0 1_0-2_0 2_0-3_0 3_0-3_1 3_1-3_2 FINISH" probability="1.00"/>
    </routeDistribution>
    <routeDistribution id="0_0-0_1-Calibrator-RouteProbe_10700.00">
        <route id="0_0-0_1-Calibrator-Distrib#0_10700.00" edges="0_0-0_1 0_1-1_1 1_1-2_1 2_1-3_1 3_1-3_2 FINISH" probability="1.00"/>
    </routeDistribution>
    <routeDistribution id="START-Calibrator-RouteProbe_10700.00">
        <route id="START-Calibrator-Distrib#0_10700.00" edges="START 0_0-1_0 1_0-2_0 2_0-3_0 3_0-3_1 3_1-3_2 FINISH" probability="6.00"/>
    </routeDistribution>
    <routeDistribution id="0_0-0_1-Calibrator-RouteProbe_10720.00">
        <route id="0_0-0_1-Calibrator-Distrib#0_10720.00" edges="0_0-0_1 0_1-1_1 1_1-2_1 2_1-3_1 3_1-3_2 FINISH" probability="2.00"/>
    </routeDistribution>
    <routeDistribution id="0_0-0_1-Calibrator-RouteProbe_10740.00">
        <route id="0_0-0_1-Calibrator-Distrib#0_10740.00" edges="0_0-0_1 0_1-1_1 1_1-2_1 2_1-3_1 3_1-3_2 FINISH" probability="1.00"/>
    </routeDistribution>
    <routeDistribution id="START-Calibrator-RouteProbe_10740.00">
        <route id="START-Calibrator-Distrib#0_10740.00" edges="START 0_0-1_0 1_0-2_0 2_0-3_0 3_0-3_1 3_1-3_2 FINISH" probability="4.00"/>
    </routeDistribution>
    <routeDistribution id="0_0-0_1-Calibrator-RouteProbe_10760.00">
        <route id="0_0-0_1-Calibrator-Distrib#0_10760.00" edges="0_0-0_1 0_1-1_1 1_1-2_1 2_1-3_1 3_1-3_2 FINISH" probability="2.00"/>
    </routeDistribution>
    <routeDistribution id="START-Calibrator-RouteProbe_10760.00">
        <route id="START-Calibrator-Distrib#0_10760.00" edges="START 0_0-1_0 1_0-2_0 2_0-3_0 3_0-3_1 3_1-3_2 FINISH" probability="7.00"/>
    </routeDistribution>
    <routeDistribution id="0_0-0_1-Calibrator-RouteProbe_10780.00">
        <route id="0_0-0_1-Calibrator-Distrib#0_10780.00" edges="0_0-0_1 0_1-1_1 1_1-2_1 2_1-3_1 3_1-3_2 FINISH" probability="3.00"/>
    </routeDistribution>
    <routeDistribution id="0_0-0_1-Calibrator-RouteProbe_14180.00">
        <route id="0_0-0_1-Calibrator-Distrib#0_14180.00" edges="0_0-0_1 0_1-1_1 1_1-2_1 2_1-3_1 3_1-3_2 FINISH" probability="1.00"/>
    </routeDistribution>
    <routeDistribution id="START-Calibrator-RouteProbe_14180.00">
        <route id="START-Calibrator-Distrib#0_14180.00" edges="START 0_0-1_0 1_0-2_0 2_0-3_0 3_0-3_1 3_1-3_2 FINISH" probability="5.00"/>
    </routeDistribution>
    <routeDistribution id="0_0-0_1-Calibrator-RouteProbe_14200.00">
        <route id="0_0-0_1-Calibrator-Distrib#0_14200.00" edges="0_0-0_1 0_1-1_1 1_1-2_1 2_1-3_1 3_1-3_2 FINISH" probability="2.00"/>
    </routeDistribution>
    <routeDistribution id="START-Calibrator-RouteProbe_14200.00">
        <route id="START-Calibrator-Distrib#0_14200.00" edges="START 0_0-1_0 1_0-2_0 2_0-3_0 3_0-3_1 3_1-3_2 FINISH" probability="4.00"/>
    </routeDistribution>
    <routeDistribution id="0_0-0_1-Calibrator-RouteProbe_14220.00">
        <route id="0_0-0_1-Calibrator-Distrib#0_14220.00" edges="0_0-0_1 0_1-1_1 1_1-2_1 2_1-3_1 3_1-3_2 FINISH" probability="3.00"/>
    </routeDistribution>
    <routeDistribution id="0_0-0_1-Calibrator-RouteProbe_14240.00">
        <route id="0_0-0_1-Calibrator-Distrib#0_14240.00" edges="0_0-0_1 0_1-1_1 1_1-2_1 2_1-3_1 3_1-3_2 FINISH" probability="2.00"/>
    </routeDistribution>
    <routeDistribution id="START-Calibrator-RouteProbe_14240.00">
        <route id="START-Calibrator-Distrib#0_14240.00" edges="START 0_0-1_0 1_0-2_0 2_0-3_0 3_0-3_1 3_1-3_2 FINISH" probability="5.00"/>
    </routeDistribution>
    <routeDistribution id="0_0-0_1-Calibrator-RouteProbe_14260.00">
        <route id="0_0-0_1-Calibrator-Distrib#0_14260.00" edges="0_0-0_1 0_1-1_1 1_1-2_1 2_1-3_1 3_1-3_2 FINISH" probability="3.00"/>
    </routeDistribution>
    <routeDistribution id="START-Calibrator-RouteProbe_14260.00">
        <route id="START-Calibrator-Distrib#0_14260.00" edges="START 0_0-1_0 1_0-2_0 2_0-3_0 3_0-3_1 3_1-3_2 FINISH" probability="4.00"/>
    </routeDistribution>
    <routeDistribution id="0_0-0_1-Calibrator-RouteProbe_14280.00">
        <route id="0_0-0_1-Calibrator-Distrib#0_14280.00" edges="0_0-0_1 0_1-1_1 1_1-2_1 2_1-3_1 3_1-3_2 FINISH" probability="2.00"/>
    </routeDistribution>
    <routeDistribution id="START-Calibrator-RouteProbe_14280.00">
        <route id="START-Calibrator-Distrib#0_14280.00" edges="START 0_0-1_0 1_0-2_0 2_0-3_0 3_0-3_1 3_1-3_2 FINISH" probability="5.00"/>
    </routeDistribution>
    <routeDistribution id="0_0-0_1-Calibrator-RouteProbe_14300.00">
        <route id="0_0-0_1-Calibrator-Distrib#0_14300.00" edges="0_0-0_1 0_1-1_1 1_1-2_1 2_1-3_1 3_1-3_2 FINISH" probability="3.00"/>
    </routeDistribution>
    <routeDistribution id="0_0-0_1-Calibrator-RouteProbe_14320.00">
        <route id="0_0-0_1-Calibrator-Distrib#0_14320.00" edges="0_0-0_1 0_1-1_1 1_1-2_1 2_1-3_1 3_1-3_2 FINISH" probability="1.00"/>
    </routeDistribution>
    <routeDistribution id="START-Calibrator-RouteProbe_14320.00">
        <route id="START-Calibrator-Distrib#0_14320.00" edges="START 0_0-1_0 1_0-2_0 2_0-3_0 3_0-3_1 3_1-3_2 FINISH" probability="8.00"/>
    </routeDistribution>
    <routeDistribution id="0_0-0_1-Calibrator-RouteProbe_14340.00">
        <route id="0_0-0_1-Calibrator-Distrib#0_14340.00" edges="0_0-0_1 0_1-1_1 1_1-2_1 2_1-3_1 3_1-3_2 FINISH" probability="2.00"/>
    </routeDistribution>
    <routeDistribution id="0_0-0_1-Calibrator-RouteProbe_14360.00">
        <route id="0_0-0_1-Calibrator-Distrib#0_14360.00" edges="0_0-0_1 0_1-1_1 1_1-2_1 2_1-3_1 3_1-3_2 FINISH" probability="1.00"/>
    </routeDistribution>
    <routeDistribution id="START-Calibrator-RouteProbe_14360.00">
        <route id="START-Calibrator-Distrib#0_14360.00" edges="START 0_0-1_0 1_0-2_0 2_0-3_0 3_0-3_1 3_1-3_2 FINISH" probability="5.00"/>
    </routeDistribution>
    <routeDistribution id="0_0-0_1-Calibrator-RouteProbe_14380.00">
        <route id="0_0-0_1-Calibrator-Distrib#0_14380.00" edges="0_0-0_1 0_1-1_1 1_1-2_1 2_1-3_1 3_1-3_2 FINISH" probability="2.00"/>
    </routeDistribution>
    <routeDistribution id="START-Calibrator-RouteProbe_14380.00">
        <route id="START-Calibrator-Distrib#0_14380.00" edges="START 0_0-1_0 1_0-2_0 2_0-3_0 3_0-3_1 3_1-3_2 FINISH" probability="4.00"/>
    </routeDistribution>
    <routeDistribution id="0_0-0_1-Calibrator-RouteProbe_17620.00">
        <route id="0_0-0_1-Calibrator-Distrib#0_17620.00" edges="0_0-0_1 0_1-1_1 1_1-2_1 2_1-3_1 3_1-3_2 FINISH" probability="1.00"/>
    </routeDistribution>
    <routeDistribution id="START-Calibrator-RouteProbe_17620.00">
        <route id="START-Calibrator-Distrib#0_17620.00" edges="START 0_0-1_0 1_0-2_0 2_0-3_0 3_0-3_1 3_1-3_2 FINISH" probability="1.00"/>
    </routeDistribution>
    <routeDistribution id="0_0-0_1-Calibrator-RouteProbe_17640.00">
        <route id="0_0-0_1-Calibrator-Distrib#0_17640.00" edges="0_0-0_1 0_1-1_1 1_1-2_1 2_1-3_1 3_1-3_2 FINISH" probability="3.00"/>
    </routeDistribution>
    <routeDistribution id="START-Calibrator-RouteProbe_17640.00">
        <route id="START-Calibrator-Distrib#0_17640.00" edges="START 0_0-1_0 1_0-2_0 2_0-3_0 3_0-3_1 3_1-3_2 FINISH" probability="5.00"/>
    </routeDistribution>
    <routeDistribution id="0_0-0_1-Calibrator-RouteProbe_17660.00">
        <route id="0_0-0_1-Calibrator-Distrib#0_17660.00" edges="0_0-0_1 0_1-1_1 1_1-2_1 2_1-3_1 3_1-3_2 FINISH" probability="2.00"/>
    </routeDistribution>
    <routeDistribution id="START-Calibrator-RouteProbe_17660.00">
        <route id="START-Calibrator-Distrib#0_17660.00" edges="START 0_0-1_0 1_0-2_0 2_0-3_0 3_0-3_1 3_1-3_2 FINISH" probability="3.00"/>
    </routeDistribution>
    <routeDistribution id="0_0-0_1-Calibrator-RouteProbe_17680.00">
        <route id="0_0-0_1-Calibrator-Distrib#0_17680.00" edges="0_0-0_1 0_1-1_1 1_1-2_1 2_1-3_1 3_1-3_2 FINISH" probability="1.00"/>
    </routeDistribution>
    <routeDistribution id="START-Calibrator-RouteProbe_17680.00">
        <route id="START-Calibrator-Distrib#0_17680.00" edges="START 0_0-1_0 1_0-2_0 2_0-3_0 3_0-3_1 3_1-3_2 FINISH" probability="4.00"/>
    </routeDistribution>
    <routeDistribution id="0_0-0_1-Calibrator-RouteProbe_17700.00">
        <route id="0_0-0_1-Calibrator-Distrib#0_17700.00" edges="0_0-0_1 0_1-1_1 1_1-2_1 2_1-3_1 3_1-3_2 FINISH" probability="2.00"/>
    </routeDistribution>
    <routeDistribution id="START-Calibrator-RouteProbe_17700.00">
        <route id="START-Calibrator-Distrib#0_17700.00" edges="START 0_0-1_0 1_0-2_0 2_0-3_0 3_0-3_1 3_1-3_2 FINISH" probability="2.00"/>
    </routeDistribution>
    <routeDistribution id="0_0-0_1-Calibrator-RouteProbe_17720.00">
        <route id="0_0-0_1-Calibrator-Distrib#0_17720.00" edges="0_0-0_1 0_1-1_1 1_1-2_1 2_1-3_1 3_1-3_2 FINISH" probability="2.00"/>
    </routeDistribution>
    <routeDistribution id="START-Calibrator-RouteProbe_17720.00">